LAMMPS data file via write_data, version 29 Sep 2021, timestep = 0

231 atoms
5 atom types
140 bonds
1 bond types
70 angles
1 angle types

0 20 xlo xhi
0 20 ylo yhi
0 20 zlo zhi

Masses

1 12.0107
2 15.9994
3 1.00794
4 15.9994
5 1.00794

Bond Coeffs # harmonic

1 3.4689 1

Angle Coeffs # harmonic

1 13.0084 109.47

Atoms # full

1 1 1 0 7.378341 8.235324 6.361027 0 0 0
2 1 1 0 8.648717 8.578412 6.823574 0 0 0
3 1 2 0 6.990804 6.929188 6.314895 0 0 0
4 1 3 0 7.71063 6.354454 6.631575 0 0 0
5 1 1 0 6.498619 9.232562 5.942876 0 0 0
6 1 1 0 6.887469 10.570362 5.987201 0 0 0
7 1 1 0 8.157308 10.916581 6.450127 0 0 0
8 1 1 0 9.036593 9.916826 6.86742 0 0 0
9 1 3 0 5.507704 8.968245 5.581026 0 0 0
10 1 3 0 6.196512 11.343266 5.659048 0 0 0
11 1 1 0 8.568229 12.331763 6.495793 0 0 0
12 1 3 0 10.028232 10.179512 7.228388 0 0 0
13 1 3 0 9.340985 7.80665 7.151082 0 0 0
14 1 1 0 8.403466 13.116211 7.571283 0 0 0
15 1 3 0 9.024318 12.71101 5.581483 0 0 0
16 1 1 0 8.81997 14.568064 7.602599 0 0 0
17 1 3 0 7.945246 12.723996 8.476459 0 0 0
18 1 2 0 10.243909 14.668732 7.621799 0 0 0
19 1 3 0 8.411068 15.052896 8.493378 0 0 0
20 1 3 0 8.434142 15.084489 6.719132 0 0 0
21 1 3 0 10.57362 14.249738 8.437487 0 0 0
22 2 4 -0.8476 18.062554067177114 6.684757237979455 19.998223789770528 0 0 0
23 2 5 0.4238 18.59729358280245 7.441354156262587 19.621905781467376 0 0 0
24 2 5 0.4238 17.979296039853622 5.961883632059545 19.312277479589802 0 0 0
25 3 4 -0.8476 18.99262142168445 18.386092135742704 0.7227358386315607 0 0 0
26 3 5 0.4238 19.49042423997474 18.222731809379194 1.5745023838613292 0 0 0
27 3 5 0.4238 18.48225759962334 19.24308843034869 0.7940563115883744 0 0 0
28 4 4 -0.8476 18.626987620138603 17.62955280450843 7.45729813322419 0 0 0
29 4 5 0.4238 17.876224340016947 18.287248117422592 7.395720034100255 0 0 0
30 4 5 0.4238 18.88402234365938 17.33014329566096 6.538446901186973 0 0 0
31 5 4 -0.8476 2.0561058024040313 13.52369103251203 11.711429104882399 0 0 0
32 5 5 0.4238 2.9544689922508027 13.957877744008094 11.64490115294814 0 0 0
33 5 5 0.4238 1.3428316767100201 14.220995452598778 11.640668543529836 0 0 0
34 6 4 -0.8476 4.478728703958974 3.5259210721094254 0.02111366981150553 0 0 1
35 6 5 0.4238 4.849627411266971 3.770694093769761 19.12527841348112 0 0 0
36 6 5 0.4238 5.230498348544507 3.3703574241104604 0.6619278726823481 0 0 1
37 7 4 -0.8476 6.146688224413936 10.313806130740202 14.433538324124672 0 0 0
38 7 5 0.4238 6.316641848667989 11.266470418069668 14.685623648866025 0 0 0
39 7 5 0.4238 5.970169998176128 10.25542108525924 13.450973826511389 0 0 0
40 8 4 -0.8476 12.084213734971508 9.591324505174324 7.5510611780250425 0 0 0
41 8 5 0.4238 12.910345235212402 10.15480191311226 7.551728076273834 0 0 0
42 8 5 0.4238 11.277823261372149 10.182039344365204 7.579183634317024 0 0 0
43 9 4 -0.8476 11.63624324596526 6.408733143145395 14.657322275987589 0 0 0
44 9 5 0.4238 12.332183658007388 6.98143645020079 15.09054087516639 0 0 0
45 9 5 0.4238 11.94991206347654 6.132856325183662 13.748749579978963 0 0 0
46 10 4 -0.8476 2.370975806865758 10.418590759984657 0.8569769369043876 0 0 0
47 10 5 0.4238 3.177317887845369 11.004399992627667 0.7754877898252911 0 0 0
48 10 5 0.4238 2.021878456639371 10.460356995180797 1.79313243219481 0 0 0
49 11 4 -0.8476 11.434806696905465 3.2891135635620756 13.651948643092668 0 0 0
50 11 5 0.4238 11.683970520576302 3.0228116885087966 12.720819656315413 0 0 0
51 11 5 0.4238 10.892672826403015 4.128962319446919 13.624646200111972 0 0 0
52 12 4 -0.8476 18.63094995381365 6.769571411265062 12.796235877771965 0 0 0
53 12 5 0.4238 19.548105635023273 7.137788996393354 12.643783406072739 0 0 0
54 12 5 0.4238 18.366437844669065 6.200776527551502 12.017450789267338 0 0 0
55 13 4 -0.8476 9.424209874302411 2.229249299284097 2.680686736316605 0 0 0
56 13 5 0.4238 8.5587842458137 2.3101769491294704 3.1751457202024502 0 0 0
57 13 5 0.4238 9.716524673937831 1.2729454161796019 2.674734360877529 0 0 0
58 14 4 -0.8476 11.010176030632179 1.8703575089821343 2.6234296351561524 0 0 0
59 14 5 0.4238 10.475801202518678 1.5318138077196224 3.397917979235097 0 0 0
60 14 5 0.4238 11.750522751242274 2.453066378619329 2.9585976470964632 0 0 0
61 15 4 -0.8476 8.59417654219921 4.778301511731176 4.369625051748412 0 0 0
62 15 5 0.4238 8.133376516425816 3.923889699627276 4.609717286701085 0 0 0
63 15 5 0.4238 9.212456765347335 5.042920292161183 5.109697316062945 0 0 0
64 16 4 -0.8476 11.436299300979648 1.1516998177937372 14.567387420080909 0 0 0
65 16 5 0.4238 12.196144577985367 1.5325452853950294 15.094257778442108 0 0 0
66 16 5 0.4238 10.857029511655872 1.8950310620746236 14.23286438327684 0 0 0
67 17 4 -0.8476 11.758977634385234 7.818112517303821 6.086875764651284 0 0 0
68 17 5 0.4238 12.008254292399453 8.720072078099705 5.734270336221491 0 0 0
69 17 5 0.4238 11.255309383398336 7.313615650691665 5.38559002101584 0 0 0
70 18 4 -0.8476 18.22395042220042 3.595581743254169 7.968275668266444 0 0 0
71 18 5 0.4238 17.393589391015663 3.6170260546014465 7.411462244307729 0 0 0
72 18 5 0.4238 17.996460768740384 3.295173144515398 8.894560517042695 0 0 0
73 19 4 -0.8476 12.440936860671965 17.468441853145265 19.675519930561883 0 0 0
74 19 5 0.4238 13.18070484032884 17.69791553123165 0.30804317680654947 0 0 1
75 19 5 0.4238 12.51206486966441 18.039975785898445 18.85802971059075 0 0 0
76 20 4 -0.8476 9.946166739037245 14.086827375917144 13.62914528563113 0 0 0
77 20 5 0.4238 10.617081122240043 14.726222439491291 13.253581266070386 0 0 0
78 20 5 0.4238 10.087243578763001 13.996582941715882 14.615022436745146 0 0 0
79 21 4 -0.8476 4.05231828111898 5.8118551470351205 8.547810111118277 0 0 0
80 21 5 0.4238 5.039339802044015 5.959807070421855 8.48536625395846 0 0 0
81 21 5 0.4238 3.575590739896377 6.679306941424819 8.405476961255207 0 0 0
82 22 4 -0.8476 16.0214753804932 11.16621170690892 5.555124241405284 0 0 0
83 22 5 0.4238 15.288658367784492 10.742673898420986 5.022587444211022 0 0 0
84 22 5 0.4238 16.13632191267198 10.671407975830022 6.416506869194416 0 0 0
85 23 4 -0.8476 7.581061667536733 5.804157247313861 13.037786864797733 0 0 0
86 23 5 0.4238 6.645867763163889 5.457418183949039 13.109792926075688 0 0 0
87 23 5 0.4238 7.604321273114401 6.569003587809837 12.393993764587512 0 0 0
88 24 4 -0.8476 2.384424257244236 8.951773432285943 14.294931002326722 0 0 0
89 24 5 0.4238 2.6477854883619374 8.776028254765405 15.24348515693385 0 0 0
90 24 5 0.4238 3.1945368862856407 9.202840518672515 13.76513544166112 0 0 0
91 25 4 -0.8476 0.9014493137095974 0.2231445292027411 8.436603515897554 0 0 0
92 25 5 0.4238 1.1471413704129771 19.665278917313845 9.22933415239692 0 -1 0
93 25 5 0.4238 0.7431660067259309 1.166279644314447 8.728909928884924 0 0 0
94 26 4 -0.8476 12.475893556516503 8.874346195776587 13.30207816007698 0 0 0
95 26 5 0.4238 13.135557694628773 8.614032651666701 14.00711757269272 0 0 0
96 26 5 0.4238 12.592114542992762 9.841923230521731 13.077828625325445 0 0 0
97 27 4 -0.8476 1.8669972724905393 13.773839665213938 0.825206639786265 0 0 0
98 27 5 0.4238 1.8237575378467235 14.770576062596668 0.8933782554369866 0 0 0
99 27 5 0.4238 1.0276316947963895 13.37757605348467 1.1972833344359612 0 0 0
100 28 4 -0.8476 15.831707394777249 15.061467051875091 18.70643997967282 0 0 0
101 28 5 0.4238 15.952755985115378 14.692534554157454 17.784899670947812 0 0 0
102 28 5 0.4238 15.212872502497914 14.470173731773883 19.223562861975775 0 0 0
103 29 4 -0.8476 13.112785085029712 6.8315178995959736 2.927973166182964 0 0 0
104 29 5 0.4238 13.350750790953404 6.954826589247066 3.891387811888939 0 0 0
105 29 5 0.4238 13.902993331864211 6.4700518011911985 2.4330856274039254 0 0 0
106 30 4 -0.8476 15.33790033339242 19.326039376731664 6.886270938876059 0 0 0
107 30 5 0.4238 15.865830470095887 0.16708728616737645 6.768251133359884 0 1 0
108 30 5 0.4238 14.66636742874284 19.24786244601593 6.149431461664935 0 0 0
109 31 4 -0.8476 8.297041694563262 1.9892612889053436 2.8594701766735318 0 0 0
110 31 5 0.4238 8.467394019262542 1.0613744805651506 2.5277976784500553 0 0 0
111 31 5 0.4238 8.28260855826499 2.6224452605151094 2.0856031129131725 0 0 0
112 32 4 -0.8476 5.469933242488595 16.188505631225752 0.677040976983108 0 0 0
113 32 5 0.4238 6.246032423619494 15.78476248249151 0.19262171580730686 0 0 0
114 32 5 0.4238 4.826394127703187 15.467786472343573 0.9347652316844857 0 0 0
115 33 4 -0.8476 9.187239888521617 15.623879977294445 14.144344393852437 0 0 0
116 33 5 0.4238 9.584865374637305 15.678323335664421 15.060275823174884 0 0 0
117 33 5 0.4238 8.248021386494678 15.966397415063351 14.167815652329498 0 0 0
118 34 4 -0.8476 6.765309159867014 13.69974965773434 2.9452762184410712 0 0 0
119 34 5 0.4238 6.324251949556293 14.596775353294424 2.973805649523247 0 0 0
120 34 5 0.4238 7.44009517065546 13.636574272776866 3.680581053240687 0 0 0
121 35 4 -0.8476 0.3311565976668256 17.688243506763122 13.437282092089825 0 0 0
122 35 5 0.4238 1.2959621536289008 17.719578790292136 13.176190481939543 0 0 0
123 35 5 0.4238 19.907597941240745 18.575629163425177 13.255223720634431 -1 0 0
124 36 4 -0.8476 17.382534632101443 4.217787981934765 17.58975703641137 0 0 0
125 36 5 0.4238 18.134415116619024 3.803638492142757 18.102744781690564 0 0 0
126 36 5 0.4238 17.661674665735895 5.119107294094172 17.258539843543833 0 0 0
127 37 4 -0.8476 9.33033506979256 5.681335260786706 5.866916407817917 0 0 0
128 37 5 0.4238 10.216841038311664 6.141468442395754 5.818078792577822 0 0 0
129 37 5 0.4238 8.610031172366394 6.359959166536379 6.010556164145105 0 0 0
130 38 4 -0.8476 16.286387880016 12.800854616154655 17.482930299240717 0 0 0
131 38 5 0.4238 17.11256816319012 12.98040674123247 18.016959946146557 0 0 0
132 38 5 0.4238 15.732827794773446 12.109703565057282 17.94756127786058 0 0 0
133 39 4 -0.8476 10.369634798383098 12.49340435637954 18.24231999803761 0 0 0
134 39 5 0.4238 11.187078496545716 12.855216189802428 18.690514695941758 0 0 0
135 39 5 0.4238 9.761037931700194 12.09624540766806 18.929251663505248 0 0 0
136 40 4 -0.8476 17.882332211535246 4.236648378870325 15.544865486620058 0 0 0
137 40 5 0.4238 18.56125055975668 4.0462464593242755 14.835769248312833 0 0 0
138 40 5 0.4238 17.641827472579426 5.207073907537134 15.524074778321905 0 0 0
139 41 4 -0.8476 13.108431223453303 9.94118319487689 14.195334223313862 0 0 0
140 41 5 0.4238 13.774325032680382 10.038195973525282 13.455621816150126 0 0 0
141 41 5 0.4238 13.570033017190175 10.04993758569183 15.075730018509054 0 0 0
142 42 4 -0.8476 9.39731608837732 14.141432781815102 17.14294228835764 0 0 0
143 42 5 0.4238 9.58821319801508 14.87481380800091 16.490476922485552 0 0 0
144 42 5 0.4238 8.427047066511491 14.15451666582614 17.384618366790566 0 0 0
145 43 4 -0.8476 19.952098388213813 2.3975208818878477 6.42174102008919 -1 0 0
146 43 5 0.4238 0.8688524060781495 2.6559268140074415 6.726353781927884 0 0 0
147 43 5 0.4238 19.336616496370624 3.180006470193642 6.5160746546363 -1 0 0
148 44 4 -0.8476 4.891494476816999 14.36964079740725 1.4511430468867905 0 0 0
149 44 5 0.4238 5.740005098093289 14.019764989219631 1.8481532912462848 0 0 0
150 44 5 0.4238 5.064558398377739 15.256951265236616 1.0236743317339159 0 0 0
151 45 4 -0.8476 18.652083701239704 11.751849973473487 11.020944125243753 0 0 0
152 45 5 0.4238 19.54963976777628 12.1684730736732 10.876656948047126 0 0 0
153 45 5 0.4238 17.966324985510845 12.470052185359103 11.138931651467978 0 0 0
154 46 4 -0.8476 1.5963779385321957 2.6611150034301954 6.177819775647867 0 0 0
155 46 5 0.4238 0.9944913262370938 2.0289820334692052 5.689822947862867 0 0 0
156 46 5 0.4238 2.414635757360455 2.832809897720902 5.629207439930813 0 0 0
157 47 4 -0.8476 3.075296229673423 1.8430353897222818 4.983163045302374 0 0 0
158 47 5 0.4238 2.5051362014542713 2.625856711828591 4.733946654234558 0 0 0
159 47 5 0.4238 3.9802645309572515 2.164949660132168 5.261378907319502 0 0 0
160 48 4 -0.8476 14.323105068714076 6.547915321148186 10.68146207078895 0 0 0
161 48 5 0.4238 15.22199522652053 6.131970049863949 10.819253598812159 0 0 0
162 48 5 0.4238 13.912915140819607 6.185548392172187 9.844542169281981 0 0 0
163 49 4 -0.8476 6.199698149736461 17.64785250713794 6.792425834738845 0 0 0
164 49 5 0.4238 6.755982321028814 17.144094790053718 7.453316576804184 0 0 0
165 49 5 0.4238 6.792817637355592 18.21575589022172 6.221728445058098 0 0 0
166 50 4 -0.8476 5.6421864880651755 2.0745700821840325 19.50456254119868 0 0 0
167 50 5 0.4238 6.378456688083773 2.25426949501085 0.15695414391462137 0 0 1
168 50 5 0.4238 4.762043718975057 2.2898067719197837 19.927672885092534 0 0 0
169 51 4 -0.8476 18.478991310429493 0.1679031475823553 15.208915231641022 0 0 0
170 51 5 0.4238 19.328055728382406 0.668931431461252 15.376428701605809 0 0 0
171 51 5 0.4238 17.70205941074236 0.7152630793745572 15.520001100842732 0 0 0
172 52 4 -0.8476 17.43794608920816 12.537669468904411 8.365592606281208 0 0 0
173 52 5 0.4238 18.342488138966303 12.96121071095885 8.316429752434775 0 0 0
174 52 5 0.4238 16.753553715157242 13.23648339610906 8.573599008071543 0 0 0
175 53 4 -0.8476 10.5145973435651 11.741135958481784 4.9937081571377915 0 0 0
176 53 5 0.4238 11.052725785545968 10.898279669098628 4.9903103521845145 0 0 0
177 53 5 0.4238 9.660988468830515 11.593610976696219 4.494119567973143 0 0 0
178 54 4 -0.8476 11.394905478513154 12.432465619251564 15.971239699426237 0 0 0
179 54 5 0.4238 12.119570829094247 13.105371001542212 15.822717088853105 0 0 0
180 54 5 0.4238 10.552188797013994 12.902576751071125 16.233584145074268 0 0 0
181 55 4 -0.8476 6.25946490779064 14.288771528269216 0.5554169607889556 0 0 0
182 55 5 0.4238 6.3737586878357035 14.959245450114315 1.2884941338537441 0 0 0
183 55 5 0.4238 6.247243278541198 14.758737155469952 19.672816580816054 0 0 -1
184 56 4 -0.8476 17.214473687591596 15.545229892714323 17.766870732623577 0 0 0
185 56 5 0.4238 18.03025523823685 16.123579274364737 17.763272945608854 0 0 0
186 56 5 0.4238 16.39731250947008 16.121593895301046 17.77412574422059 0 0 0
187 57 4 -0.8476 7.985736141658756 12.401564014944057 3.280425644864821 0 0 0
188 57 5 0.4238 8.645815137139627 12.788444808505236 3.92433515791649 0 0 0
189 57 5 0.4238 8.224631889147295 12.680494839575806 2.3503036600681253 0 0 0
190 58 4 -0.8476 10.388945605960664 17.754670304149258 9.662856363117372 0 0 0
191 58 5 0.4238 10.204583912779716 17.785775055925107 8.680489959882602 0 0 0
192 58 5 0.4238 11.374897591708299 17.813999950865874 9.818994649648188 0 0 0
193 59 4 -0.8476 14.666622664153724 6.111731167284635 5.373484663171291 0 0 0
194 59 5 0.4238 15.180857089217817 5.52364057396897 4.749214769749679 0 0 0
195 59 5 0.4238 14.617247544270139 7.036319722388075 4.9957299927723495 0 0 0
196 60 4 -0.8476 18.319602154881657 11.920557385970305 10.171467442752983 0 0 0
197 60 5 0.4238 19.13751888182359 12.46438820678088 9.983688967348872 0 0 0
198 60 5 0.4238 17.986236590874405 12.126701138312372 11.091452575135273 0 0 0
199 61 4 -0.8476 14.149441339015677 17.679991067225444 3.89798276512221 0 0 0
200 61 5 0.4238 13.726560565358039 18.583921516908877 3.9618739468754436 0 0 0
201 61 5 0.4238 13.881212976061645 17.24658289299375 3.0376273795307966 0 0 0
202 62 4 -0.8476 11.587564957541417 3.9278483652624985 5.798183072115448 0 0 0
203 62 5 0.4238 11.752617008121687 4.733773845336579 5.229638939381136 0 0 0
204 62 5 0.4238 10.674944353014753 3.5664158080764596 5.607157868282684 0 0 0
205 63 4 -0.8476 14.590491382046288 1.2423265460776742 12.459888089861785 0 0 0
206 63 5 0.4238 15.101471116667515 0.4796590711460441 12.063354959861488 0 0 0
207 63 5 0.4238 14.414876951412174 1.928652650011478 11.754114372221277 0 0 0
208 64 4 -0.8476 18.052867202987926 3.2897564368992573 9.585689062726386 0 0 0
209 64 5 0.4238 18.364529027959332 4.0673448570545165 10.131787630199275 0 0 0
210 64 5 0.4238 17.12879439110408 3.468683522837429 9.24793911682742 0 0 0
211 65 4 -0.8476 13.555091989049174 1.0298748891903147 19.2632360280753 0 0 0
212 65 5 0.4238 14.159759162896304 1.7780673870327326 18.990131497274277 0 0 0
213 65 5 0.4238 14.028663368051237 0.44059530856630025 19.917820029216234 0 0 0
214 66 4 -0.8476 14.70707728840229 16.284608218829483 3.7803092438755574 0 0 0
215 66 5 0.4238 14.414363312447554 15.855064539160868 4.634599150896305 0 0 0
216 66 5 0.4238 14.027788986741054 16.962005882173006 3.4979968307178475 0 0 0
217 67 4 -0.8476 0.18332160426641428 9.698915029460096 18.18378578977859 0 0 0
218 67 5 0.4238 0.46309442325893 10.65889765123503 18.17109621361916 0 0 0
219 67 5 0.4238 19.551708778032257 9.525794325882462 17.428077546188984 -1 0 0
220 68 4 -0.8476 9.727029603954167 17.085163515067855 6.468935378574304 0 0 0
221 68 5 0.4238 10.369300506522263 17.22550794343991 5.715415625124346 0 0 0
222 68 5 0.4238 10.104819793786376 16.415769486539393 7.108612403905823 0 0 0
223 69 4 -0.8476 5.687678211512438 0.46961085804909064 7.331613799083141 0 0 0
224 69 5 0.4238 6.3692209166043074 1.1977247328869032 7.258468627644949 0 0 0
225 69 5 0.4238 4.779092480251482 0.8436262538877773 7.145643526392522 0 0 0
226 70 4 -0.8476 10.868364542061483 13.247487741950579 14.721447163396535 0 0 0
227 70 5 0.4238 10.50801865227792 13.988169464225747 14.154400502438566 0 0 0
228 70 5 0.4238 10.969710903763874 13.567849615591804 15.663305791103886 0 0 0
229 71 4 -0.8476 3.1684669507266525 13.98334777963355 9.5809404385394 0 0 0
230 71 5 0.4238 3.8056476756197606 14.70971622415594 9.838603195504424 0 0 0
231 71 5 0.4238 2.578036147260852 14.304988013507202 8.840711071402136 0 0 0

Velocities

1 0 0 0
2 0 0 0
3 0 0 0
4 0 0 0
5 0 0 0
6 0 0 0
7 0 0 0
8 0 0 0
9 0 0 0
10 0 0 0
11 0 0 0
12 0 0 0
13 0 0 0
14 0 0 0
15 0 0 0
16 0 0 0
17 0 0 0
18 0 0 0
19 0 0 0
20 0 0 0
21 0 0 0
22 0 0 0
23 0 0 0
24 0 0 0
25 0 0 0
26 0 0 0
27 0 0 0
28 0 0 0
29 0 0 0
30 0 0 0
31 0 0 0
32 0 0 0
33 0 0 0
34 0 0 0
35 0 0 0
36 0 0 0
37 0 0 0
38 0 0 0
39 0 0 0
40 0 0 0
41 0 0 0
42 0 0 0
43 0 0 0
44 0 0 0
45 0 0 0
46 0 0 0
47 0 0 0
48 0 0 0
49 0 0 0
50 0 0 0
51 0 0 0
52 0 0 0
53 0 0 0
54 0 0 0
55 0 0 0
56 0 0 0
57 0 0 0
58 0 0 0
59 0 0 0
60 0 0 0
61 0 0 0
62 0 0 0
63 0 0 0
64 0 0 0
65 0 0 0
66 0 0 0
67 0 0 0
68 0 0 0
69 0 0 0
70 0 0 0
71 0 0 0
72 0 0 0
73 0 0 0
74 0 0 0
75 0 0 0
76 0 0 0
77 0 0 0
78 0 0 0
79 0 0 0
80 0 0 0
81 0 0 0
82 0 0 0
83 0 0 0
84 0 0 0
85 0 0 0
86 0 0 0
87 0 0 0
88 0 0 0
89 0 0 0
90 0 0 0
91 0 0 0
92 0 0 0
93 0 0 0
94 0 0 0
95 0 0 0
96 0 0 0
97 0 0 0
98 0 0 0
99 0 0 0
100 0 0 0
101 0 0 0
102 0 0 0
103 0 0 0
104 0 0 0
105 0 0 0
106 0 0 0
107 0 0 0
108 0 0 0
109 0 0 0
110 0 0 0
111 0 0 0
112 0 0 0
113 0 0 0
114 0 0 0
115 0 0 0
116 0 0 0
117 0 0 0
118 0 0 0
119 0 0 0
120 0 0 0
121 0 0 0
122 0 0 0
123 0 0 0
124 0 0 0
125 0 0 0
126 0 0 0
127 0 0 0
128 0 0 0
129 0 0 0
130 0 0 0
131 0 0 0
132 0 0 0
133 0 0 0
134 0 0 0
135 0 0 0
136 0 0 0
137 0 0 0
138 0 0 0
139 0 0 0
140 0 0 0
141 0 0 0
142 0 0 0
143 0 0 0
144 0 0 0
145 0 0 0
146 0 0 0
147 0 0 0
148 0 0 0
149 0 0 0
150 0 0 0
151 0 0 0
152 0 0 0
153 0 0 0
154 0 0 0
155 0 0 0
156 0 0 0
157 0 0 0
158 0 0 0
159 0 0 0
160 0 0 0
161 0 0 0
162 0 0 0
163 0 0 0
164 0 0 0
165 0 0 0
166 0 0 0
167 0 0 0
168 0 0 0
169 0 0 0
170 0 0 0
171 0 0 0
172 0 0 0
173 0 0 0
174 0 0 0
175 0 0 0
176 0 0 0
177 0 0 0
178 0 0 0
179 0 0 0
180 0 0 0
181 0 0 0
182 0 0 0
183 0 0 0
184 0 0 0
185 0 0 0
186 0 0 0
187 0 0 0
188 0 0 0
189 0 0 0
190 0 0 0
191 0 0 0
192 0 0 0
193 0 0 0
194 0 0 0
195 0 0 0
196 0 0 0
197 0 0 0
198 0 0 0
199 0 0 0
200 0 0 0
201 0 0 0
202 0 0 0
203 0 0 0
204 0 0 0
205 0 0 0
206 0 0 0
207 0 0 0
208 0 0 0
209 0 0 0
210 0 0 0
211 0 0 0
212 0 0 0
213 0 0 0
214 0 0 0
215 0 0 0
216 0 0 0
217 0 0 0
218 0 0 0
219 0 0 0
220 0 0 0
221 0 0 0
222 0 0 0
223 0 0 0
224 0 0 0
225 0 0 0
226 0 0 0
227 0 0 0
228 0 0 0
229 0 0 0
230 0 0 0
231 0 0 0

Bonds

1 1 22 23
2 1 22 24
3 1 25 26
4 1 25 27
5 1 28 29
6 1 28 30
7 1 31 32
8 1 31 33
9 1 34 35
10 1 34 36
11 1 37 38
12 1 37 39
13 1 40 41
14 1 40 42
15 1 43 44
16 1 43 45
17 1 46 47
18 1 46 48
19 1 49 50
20 1 49 51
21 1 52 53
22 1 52 54
23 1 55 56
24 1 55 57
25 1 58 59
26 1 58 60
27 1 61 62
28 1 61 63
29 1 64 65
30 1 64 66
31 1 67 68
32 1 67 69
33 1 70 71
34 1 70 72
35 1 73 74
36 1 73 75
37 1 76 77
38 1 76 78
39 1 79 80
40 1 79 81
41 1 82 83
42 1 82 84
43 1 85 86
44 1 85 87
45 1 88 89
46 1 88 90
47 1 91 92
48 1 91 93
49 1 94 95
50 1 94 96
51 1 97 98
52 1 97 99
53 1 100 101
54 1 100 102
55 1 103 104
56 1 103 105
57 1 106 107
58 1 106 108
59 1 109 110
60 1 109 111
61 1 112 113
62 1 112 114
63 1 115 116
64 1 115 117
65 1 118 119
66 1 118 120
67 1 121 122
68 1 121 123
69 1 124 125
70 1 124 126
71 1 127 128
72 1 127 129
73 1 130 131
74 1 130 132
75 1 133 134
76 1 133 135
77 1 136 137
78 1 136 138
79 1 139 140
80 1 139 141
81 1 142 143
82 1 142 144
83 1 145 146
84 1 145 147
85 1 148 149
86 1 148 150
87 1 151 152
88 1 151 153
89 1 154 155
90 1 154 156
91 1 157 158
92 1 157 159
93 1 160 161
94 1 160 162
95 1 163 164
96 1 163 165
97 1 166 167
98 1 166 168
99 1 169 170
100 1 169 171
101 1 172 173
102 1 172 174
103 1 175 176
104 1 175 177
105 1 178 179
106 1 178 180
107 1 181 182
108 1 181 183
109 1 184 185
110 1 184 186
111 1 187 188
112 1 187 189
113 1 190 191
114 1 190 192
115 1 193 194
116 1 193 195
117 1 196 197
118 1 196 198
119 1 199 200
120 1 199 201
121 1 202 203
122 1 202 204
123 1 205 206
124 1 205 207
125 1 208 209
126 1 208 210
127 1 211 212
128 1 211 213
129 1 214 215
130 1 214 216
131 1 217 218
132 1 217 219
133 1 220 221
134 1 220 222
135 1 223 224
136 1 223 225
137 1 226 227
138 1 226 228
139 1 229 230
140 1 229 231

Angles

1 1 23 22 24
2 1 26 25 27
3 1 29 28 30
4 1 32 31 33
5 1 35 34 36
6 1 38 37 39
7 1 41 40 42
8 1 44 43 45
9 1 47 46 48
10 1 50 49 51
11 1 53 52 54
12 1 56 55 57
13 1 59 58 60
14 1 62 61 63
15 1 65 64 66
16 1 68 67 69
17 1 71 70 72
18 1 74 73 75
19 1 77 76 78
20 1 80 79 81
21 1 83 82 84
22 1 86 85 87
23 1 89 88 90
24 1 92 91 93
25 1 95 94 96
26 1 98 97 99
27 1 101 100 102
28 1 104 103 105
29 1 107 106 108
30 1 110 109 111
31 1 113 112 114
32 1 116 115 117
33 1 119 118 120
34 1 122 121 123
35 1 125 124 126
36 1 128 127 129
37 1 131 130 132
38 1 134 133 135
39 1 137 136 138
40 1 140 139 141
41 1 143 142 144
42 1 146 145 147
43 1 149 148 150
44 1 152 151 153
45 1 155 154 156
46 1 158 157 159
47 1 161 160 162
48 1 164 163 165
49 1 167 166 168
50 1 170 169 171
51 1 173 172 174
52 1 176 175 177
53 1 179 178 180
54 1 182 181 183
55 1 185 184 186
56 1 188 187 189
57 1 191 190 192
58 1 194 193 195
59 1 197 196 198
60 1 200 199 201
61 1 203 202 204
62 1 206 205 207
63 1 209 208 210
64 1 212 211 213
65 1 215 214 216
66 1 218 217 219
67 1 221 220 222
68 1 224 223 225
69 1 227 226 228
70 1 230 229 231
