# LAMMPS data file written by OVITO Basic 3.8.4

2 atoms
1 atom types

0.0 3.16 xlo xhi
0.0 3.16 ylo yhi
0.0 3.16 zlo zhi

Atoms  # charge

1 1 0.0 0.0 0.0 0.0
2 1 0.0 1.58 1.58 1.58
