# LAMMPS data file

78 atoms
3 atom types

-5.0 25.0 xlo xhi
-5.0 25.0 ylo yhi
-5.0 25.0 zlo zhi
0.0 0.0 0.0 xy xz yz

Masses

1 12.011  # C
2 15.9994  # O
3 1.00784  # H

Atoms  # charge

1 1 0.0 7.2976 8.2088 6.4125
2 1 0.0 8.5035 8.6036 7.0028
3 1 0.0 6.3882 9.1633 5.9893
4 1 0.0 6.6779 10.5112 6.1451
5 1 0.0 7.9031 10.9088 6.6882
6 1 0.0 8.8037 9.9499 7.1254
7 1 0.0 8.1912 12.3395 6.8347
8 1 0.0 8.6761 12.9088 7.9457
9 1 0.0 8.7227 14.3924 8.1204
10 2 0.0 7.0185 6.8967 6.2307
11 2 0.0 10.0281 14.8047 7.8372
12 3 0.0 7.7106 6.3545 6.6316
13 3 0.0 7.5703 9.9368 10.3962
14 3 0.0 5.9641 11.2484 5.8128
15 3 0.0 9.7424 10.2576 7.5778
16 3 0.0 9.2052 7.875 7.378
17 3 0.0 7.8591 12.9489 5.999
18 3 0.0 9.0338 12.3296 8.7887
19 3 0.0 8.5122 14.6695 9.1459
20 3 0.0 8.003 14.8832 7.4715
21 3 0.0 10.5736 14.2497 8.4375
22 2 0.0 10.0465 5.8779 6.3033
23 3 0.0 9.5473 6.3392 5.4402
24 3 0.0 10.3701 6.8683 6.6442
25 2 0.0 4.2294 6.2571 5.9453
26 3 0.0 4.9224 6.0023 6.7673
27 3 0.0 5.0699 6.7246 5.4024
28 2 0.0 11.5591 9.3822 9.0462
29 3 0.0 10.8354 8.5579 8.9867
30 3 0.0 11.6679 9.2021 10.1263
31 2 0.0 4.8474 8.7386 8.3529
32 3 0.0 5.4153 9.1227 7.4843
33 3 0.0 4.6572 9.7726 8.6715
34 2 0.0 5.5881 12.6896 9.4367
35 3 0.0 6.6653 12.781 9.1838
36 3 0.0 5.3813 12.508 8.3571
37 2 0.0 6.2766 12.4451 3.3688
38 3 0.0 7.1048 11.7312 3.4421
39 3 0.0 6.9186 13.2395 3.7536
40 2 0.0 9.0496 14.5446 4.4206
41 3 0.0 9.3782 15.4449 4.9704
42 3 0.0 8.0815 15.0433 4.2194
43 2 0.0 10.5097 11.0109 4.9398
44 3 0.0 10.454 10.2421 5.7276
45 3 0.0 9.8405 11.6537 5.5331
46 2 0.0 12.0626 16.0804 9.1358
47 3 0.0 11.9283 15.2554 8.4095
48 3 0.0 11.0054 16.3649 8.9784
49 2 0.0 11.8629 13.1316 6.6768
50 3 0.0 10.8345 12.7817 6.4793
51 3 0.0 11.4715 14.1601 6.7971
52 2 0.0 7.3825 14.2876 11.1275
53 3 0.0 7.2715 13.4538 10.4104
54 3 0.0 7.2683 15.0006 10.2912
55 2 0.0 5.5453 13.4317 6.9203
56 3 0.0 5.919 12.3856 7.0074
57 3 0.0 5.3384 13.2618 5.8665
58 2 0.0 4.1367 10.9272 4.1192
59 3 0.0 4.283 9.9693 4.6244
60 3 0.0 5.2395 11.0279 4.0151
61 2 0.0 8.0741 9.547 3.7252
62 3 0.0 7.9082 8.8079 4.5353
63 3 0.0 7.7527 10.347 4.4189
64 2 0.0 6.8876 15.9483 5.581
65 3 0.0 6.1201 15.1894 5.7843
66 3 0.0 7.3909 15.677 6.5285
67 2 0.0 7.4798 10.7436 9.6702
68 3 0.0 8.5646 10.9206 9.7253
69 3 0.0 5.4473 8.8559 5.5291
70 2 0.0 8.4242 7.8578 9.9659
71 3 0.0 7.9801 6.9298 9.5693
72 3 0.0 8.7249 8.1392 8.9454
73 2 0.0 8.7235 17.458 7.4647
74 3 0.0 8.9531 17.089 8.4751
75 3 0.0 9.4006 16.6965 7.0425
76 2 0.0 8.0694 4.0849 6.8755
77 3 0.0 7.7636 4.842 6.1351
78 3 0.0 7.5677 4.6628 7.6636
