# LAMMPS data file written by OVITO Basic 3.8.4

582 atoms
3 atom types

0.0 20.0 xlo xhi
0.0 20.0 ylo yhi
0.0 40.0 zlo zhi

Masses

1 12.0107  # C
2 15.9994  # O
3 1.00794  # H

Atoms  # charge

1 1 0.0 7.3753798 8.24559032 6.3570702
2 1 0.0 7.3753798 8.24559032 26.357069
3 1 0.0 8.63869012 8.57505024 6.82273032
4 1 0.0 8.63869012 8.57505024 26.82272912
5 1 0.0 6.49414002 9.2471999 5.93504012
6 1 0.0 6.49414002 9.2471999 25.93503952
7 1 0.0 6.89548016 10.55750012 5.98572016
8 1 0.0 6.89548016 10.55750012 25.98572016
9 1 0.0 8.14229012 10.90499998 6.44961
10 1 0.0 8.14229012 10.90499998 26.4496088
11 1 0.0 9.03048038 9.91168976 6.86746
12 1 0.0 9.03048038 9.91168976 26.8674612
13 1 0.0 8.55408012 12.32460022 6.49805008
14 1 0.0 8.55408012 12.32460022 26.49805068
15 1 0.0 8.39657008 13.12289954 7.58139016
16 1 0.0 8.39657008 13.12289954 27.58139132
17 1 0.0 8.83059024 14.56369996 7.61781992
18 1 0.0 8.83059024 14.56369996 27.61781932
19 2 0.0 7.00017036 6.93068982 6.31309988
20 2 0.0 7.00017036 6.93068982 26.31309988
21 2 0.0 10.2402997 14.67540026 7.63219952
22 2 0.0 10.2402997 14.67540026 27.63219832
23 2 0.0 18.1840992 9.96905982 11.27869964
24 2 0.0 18.1840992 9.96905982 31.27870084
25 2 0.0 12.29290008 2.62684018 7.63621984
26 2 0.0 12.29290008 2.62684018 27.63622044
27 2 0.0 14.8022008 17.92140008 13.67840052
28 2 0.0 14.8022008 17.92140008 33.67840052
29 2 0.0 13.60550046 8.84195984 7.26949988
30 2 0.0 13.60550046 8.84195984 27.26949932
31 2 0.0 12.8121996 11.57590032 2.98909008
32 2 0.0 12.8121996 11.57590032 22.98908948
33 2 0.0 17.5632 3.16807002 9.86344992
34 2 0.0 17.5632 3.16807002 29.86345052
35 2 0.0 17.62850046 15.4005003 0.38729304
36 2 0.0 17.62850046 15.4005003 20.38729192
37 2 0.0 1.53263002 11.8314004 16.82440044
38 2 0.0 1.53263002 11.8314004 36.82440044
39 2 0.0 19.6739006 6.3905102 3.93337996
40 2 0.0 19.6739006 6.3905102 23.93337964
41 2 0.0 12.62349964 12.68649936 7.87257016
42 2 0.0 12.62349964 12.68649936 27.87256956
43 2 0.0 16.96999908 15.3757 5.3265798
44 2 0.0 16.96999908 15.3757 25.326581
45 2 0.0 15.62269926 5.5913502 16.16180064
46 2 0.0 15.62269926 5.5913502 36.16179944
47 2 0.0 16.8801999 18.07739974 15.56710004
48 2 0.0 16.8801999 18.07739974 35.56710004
49 2 0.0 9.25302982 4.19167996 12.4759996
50 2 0.0 9.25302982 4.19167996 32.4760008
51 2 0.0 8.36128056 5.59673964 15.35290004
52 2 0.0 8.36128056 5.59673964 35.35290004
53 2 0.0 1.85039998 13.05099964 3.58536004
54 2 0.0 1.85039998 13.05099964 23.58536004
55 2 0.0 10.02330064 0.52792798 17.4782014
56 2 0.0 10.02330064 0.52792798 37.4782014
57 2 0.0 1.40294998 3.0090201 3.0910498
58 2 0.0 1.40294998 3.0090201 23.0910492
59 2 0.0 9.69698072 11.41759992 2.48680992
60 2 0.0 9.69698072 11.41759992 22.48681068
61 2 0.0 8.63062978 13.84109974 18.59970092
62 2 0.0 8.63062978 13.84109974 38.59970092
63 2 0.0 4.48523998 1.51473 5.50166012
64 2 0.0 4.48523998 1.51473 25.50166132
65 2 0.0 16.40099884 3.22356016 4.28638996
66 2 0.0 16.40099884 3.22356016 24.28638936
67 2 0.0 7.07134008 3.32715004 19.79220032
68 2 0.0 7.07134008 3.32715004 39.79219912
69 2 0.0 10.10779976 7.33586966 1.21207
70 2 0.0 10.10779976 7.33586966 21.21207
71 2 0.0 10.6645 7.6511997 10.13329984
72 2 0.0 10.6645 7.6511997 30.13329984
73 2 0.0 3.5699001 4.47225988 8.07143032
74 2 0.0 3.5699001 4.47225988 28.07142972
75 2 0.0 8.40721012 17.15150118 0.66784604
76 2 0.0 8.40721012 17.15150118 20.6678462
77 2 0.0 7.56769002 6.5774399 11.22130036
78 2 0.0 7.56769002 6.5774399 31.22129916
79 2 0.0 16.67200088 8.15587998 14.42970036
80 2 0.0 16.67200088 8.15587998 34.42970036
81 2 0.0 13.01830054 14.10889984 2.59393992
82 2 0.0 13.01830054 14.10889984 22.59393932
83 2 0.0 18.16169978 7.4454999 16.80629968
84 2 0.0 18.16169978 7.4454999 36.80629968
85 2 0.0 1.09311 19.13839936 16.73959972
86 2 0.0 1.09311 19.13839936 36.73959972
87 2 0.0 6.90787972 9.36676026 10.05550028
88 2 0.0 6.90787972 9.36676026 30.05549908
89 2 0.0 12.1404004 10.45409918 17.01259972
90 2 0.0 12.1404004 10.45409918 37.01260088
91 2 0.0 10.47719956 16.06480002 14.01880024
92 2 0.0 10.47719956 16.06480002 34.01880024
93 2 0.0 10.07159948 4.52775002 18.29590084
94 2 0.0 10.07159948 4.52775002 38.29590084
95 2 0.0 1.63686008 11.17339968 10.74800016
96 2 0.0 1.63686008 11.17339968 30.74800016
97 2 0.0 10.6072998 19.19210076 15.1703
98 2 0.0 10.6072998 19.19210076 35.1703
99 2 0.0 15.95909954 10.08139968 12.6716006
100 2 0.0 15.95909954 10.08139968 32.6715994
101 2 0.0 0.70670798 10.77989936 6.83673976
102 2 0.0 0.70670798 10.77989936 26.8367386
103 2 0.0 9.9523294 9.7515297 12.17630028
104 2 0.0 9.9523294 9.7515297 32.17629908
105 2 0.0 3.5285598 3.04094016 11.9426
106 2 0.0 3.5285598 3.04094016 31.9426012
107 2 0.0 7.49947966 0.86310498 4.61139024
108 2 0.0 7.49947966 0.86310498 24.61138964
109 2 0.0 7.50588 4.37941968 8.5442102
110 2 0.0 7.50588 4.37941968 28.5442114
111 2 0.0 1.09596 10.34889936 14.2150998
112 2 0.0 1.09596 10.34889936 34.2150998
113 2 0.0 4.9958402 13.52699996 10.27060032
114 2 0.0 4.9958402 13.52699996 30.27060032
115 2 0.0 1.07430004 12.53059984 0.74497996
116 2 0.0 1.07430004 12.53059984 20.7449794
117 2 0.0 1.88358992 14.25230026 19.11129952
118 2 0.0 1.88358992 14.25230026 39.11129952
119 2 0.0 1.64418996 5.99069 8.78081976
120 2 0.0 1.64418996 5.99069 28.78082036
121 2 0.0 15.02359986 11.46239996 1.20556996
122 2 0.0 15.02359986 11.46239996 21.20557068
123 2 0.0 6.65612996 17.4115014 16.16160036
124 2 0.0 6.65612996 17.4115014 36.16159916
125 2 0.0 14.96090054 14.71019984 9.98851956
126 2 0.0 14.96090054 14.71019984 29.98852016
127 2 0.0 11.89429998 15.55379986 3.81495
128 2 0.0 11.89429998 15.55379986 23.81495
129 2 0.0 0.590778 15.8431995 8.67230056
130 2 0.0 0.590778 15.8431995 28.6722994
131 2 0.0 7.90946006 14.25400018 2.36394004
132 2 0.0 7.90946006 14.25400018 22.36393928
133 2 0.0 14.64110016 8.5218203 10.7340002
134 2 0.0 14.64110016 8.5218203 30.7340002
135 2 0.0 18.19650054 5.70803046 0.84376404
136 2 0.0 18.19650054 5.70803046 20.84376336
137 2 0.0 7.69497036 11.7629993 0.707174
138 2 0.0 7.69497036 11.7629993 20.70717336
139 2 0.0 13.0269003 3.37709994 9.63562012
140 2 0.0 13.0269003 3.37709994 29.63562012
141 2 0.0 5.77296018 9.95653986 19.52560068
142 2 0.0 5.77296018 9.95653986 39.52559948
143 2 0.0 4.25839006 3.67775976 18.01289916
144 2 0.0 4.25839006 3.67775976 38.01290036
145 2 0.0 5.11826992 13.61320018 4.25117016
146 2 0.0 5.11826992 13.61320018 24.25117016
147 2 0.0 4.9739799 2.3141101 2.79298992
148 2 0.0 4.9739799 2.3141101 22.7929902
149 2 0.0 4.93259996 8.59337986 3.49428
150 2 0.0 4.93259996 8.59337986 23.4942794
151 2 0.0 12.96800018 14.42479968 19.92720008
152 2 0.0 12.96800018 14.42479968 39.92720128
153 2 0.0 3.64529998 6.21267974 2.37325996
154 2 0.0 3.64529998 6.21267974 22.37325908
155 2 0.0 4.44938988 6.35415972 10.34360052
156 2 0.0 4.44938988 6.35415972 30.34359932
157 2 0.0 6.31295026 11.6368997 13.17669988
158 2 0.0 6.31295026 11.6368997 33.17669868
159 2 0.0 1.07280002 2.86215008 9.40509976
160 2 0.0 1.07280002 2.86215008 29.40510036
161 2 0.0 16.28109932 14.32780028 16.89469932
162 2 0.0 16.28109932 14.32780028 36.89469816
163 2 0.0 17.17519998 11.92559958 10.75150012
164 2 0.0 17.17519998 11.92559958 30.75150012
165 2 0.0 10.59300066 12.64690042 10.3437996
166 2 0.0 10.59300066 12.64690042 30.3437996
167 2 0.0 13.4099996 2.83129006 16.3393998
168 2 0.0 13.4099996 2.83129006 36.3393998
169 2 0.0 9.5214194 16.00350022 16.20809912
170 2 0.0 9.5214194 16.00350022 36.20810032
171 2 0.0 5.83774984 6.6229999 16.86759948
172 2 0.0 5.83774984 6.6229999 36.86759948
173 2 0.0 15.15959978 3.90213996 11.33949996
174 2 0.0 15.15959978 3.90213996 31.33949996
175 2 0.0 19.17460084 0.85819102 4.23134
176 2 0.0 19.17460084 0.85819102 24.23134088
177 2 0.0 2.1412699 17.85919904 18.43869924
178 2 0.0 2.1412699 17.85919904 38.43869924
179 2 0.0 13.72169972 5.36505998 19.4303
180 2 0.0 13.72169972 5.36505998 39.4302988
181 2 0.0 15.2654004 13.26140046 19.17709948
182 2 0.0 15.2654004 13.26140046 39.17709828
183 2 0.0 13.62320066 13.84090066 12.09409952
184 2 0.0 13.62320066 13.84090066 32.09409952
185 2 0.0 4.4669199 16.35320068 2.4313
186 2 0.0 4.4669199 16.35320068 22.43129968
187 2 0.0 7.70295978 1.2776801 7.8974998
188 2 0.0 7.70295978 1.2776801 27.897501
189 2 0.0 1.24132 9.52288986 17.00849892
190 2 0.0 1.24132 9.52288986 37.00850008
191 2 0.0 12.22880006 19.99950052 4.12720024
192 2 0.0 12.22880006 19.99950052 24.12719964
193 2 0.0 2.69033014 0.79355002 13.3876002
194 2 0.0 2.69033014 0.79355002 33.387599
195 2 0.0 2.33180002 15.95669984 15.13200044
196 2 0.0 2.33180002 15.95669984 35.13200044
197 2 0.0 13.41950058 18.59309912 10.6506002
198 2 0.0 13.41950058 18.59309912 30.6506014
199 2 0.0 0.870606 4.02825028 5.73278008
200 2 0.0 0.870606 4.02825028 25.73277952
201 2 0.0 10.80469966 19.6457994 2.22587988
202 2 0.0 10.80469966 19.6457994 22.22588064
203 3 0.0 7.73970962 6.32938028 6.62118016
204 3 0.0 7.73970962 6.32938028 26.6211796
205 3 0.0 5.53977012 8.94775986 5.58790028
206 3 0.0 5.53977012 8.94775986 25.58789968
207 3 0.0 6.16653026 11.29679918 5.69445012
208 3 0.0 6.16653026 11.29679918 25.69445132
209 3 0.0 10.04179954 10.1661992 7.28124976
210 3 0.0 10.04179954 10.1661992 27.28125096
211 3 0.0 9.34743046 7.78180004 7.14897992
212 3 0.0 9.34743046 7.78180004 27.14898108
213 3 0.0 9.0119201 12.7406001 5.61289968
214 3 0.0 9.0119201 12.7406001 25.61290024
215 3 0.0 7.98121988 12.75570034 8.52989016
216 3 0.0 7.98121988 12.75570034 28.5298896
217 3 0.0 8.4107101 15.01019954 8.53505016
218 3 0.0 8.4107101 15.01019954 28.53505136
219 3 0.0 8.37992966 15.04529954 6.74956976
220 3 0.0 8.37992966 15.04529954 26.74957036
221 3 0.0 10.60270072 14.28680062 8.48612964
222 3 0.0 10.60270072 14.28680062 28.48613024
223 3 0.0 19.14819956 10.0354004 11.58349992
224 3 0.0 19.14819956 10.0354004 31.58349992
225 3 0.0 18.05100084 9.26136016 10.63080072
226 3 0.0 18.05100084 9.26136016 30.63080072
227 3 0.0 11.36190056 2.40217 7.36950992
228 3 0.0 11.36190056 2.40217 27.36950876
229 3 0.0 12.52690076 3.61788988 7.29569016
230 3 0.0 12.52690076 3.61788988 27.2956896
231 3 0.0 14.9898994 18.38500022 12.90940048
232 3 0.0 14.9898994 18.38500022 32.90940048
233 3 0.0 14.19589996 17.10940004 13.47000004
234 3 0.0 14.19589996 17.10940004 33.47000124
235 3 0.0 14.63649988 8.76521944 7.1434796
236 3 0.0 14.63649988 8.76521944 27.1434784
237 3 0.0 13.25119972 7.88873016 7.14457988
238 3 0.0 13.25119972 7.88873016 27.14457988
239 3 0.0 13.72730016 11.43299938 3.24295996
240 3 0.0 13.72730016 11.43299938 23.24295996
241 3 0.0 12.32439994 10.71339964 3.26086996
242 3 0.0 12.32439994 10.71339964 23.26086996
243 3 0.0 17.3913002 3.86305988 10.51540016
244 3 0.0 17.3913002 3.86305988 30.51539896
245 3 0.0 18.11860084 3.50392998 9.10750032
246 3 0.0 18.11860084 3.50392998 29.10749912
247 3 0.0 16.94280028 14.69310046 0.0575686
248 3 0.0 16.94280028 14.69310046 20.05756856
249 3 0.0 18.54330062 15.01980066 0.349247
250 3 0.0 18.54330062 15.01980066 20.34924744
251 3 0.0 1.01758004 12.66929984 16.6613996
252 3 0.0 1.01758004 12.66929984 36.6614008
253 3 0.0 2.48788998 12.10749984 17.0863986
254 3 0.0 2.48788998 12.10749984 37.0863986
255 3 0.0 19.95800018 5.53158998 4.40977992
256 3 0.0 19.95800018 5.53158998 24.40978052
257 3 0.0 18.7180996 6.32075012 3.74606996
258 3 0.0 18.7180996 6.32075012 23.74607088
259 3 0.0 12.9282999 11.80480004 7.56363036
260 3 0.0 12.9282999 11.80480004 27.56362916
261 3 0.0 11.91129922 13.03300024 7.2231698
262 3 0.0 11.91129922 13.03300024 27.2231698
263 3 0.0 17.29179978 15.42330026 6.3234198
264 3 0.0 17.29179978 15.42330026 26.3234186
265 3 0.0 16.39049888 14.6220994 5.19042016
266 3 0.0 16.39049888 14.6220994 25.19042016
267 3 0.0 15.52620054 4.72419978 16.68339968
268 3 0.0 15.52620054 4.72419978 36.68339968
269 3 0.0 14.89140034 6.1709398 16.45229936
270 3 0.0 14.89140034 6.1709398 36.45229816
271 3 0.0 16.51530028 17.12199926 15.43009996
272 3 0.0 16.51530028 17.12199926 35.43009996
273 3 0.0 17.8113997 18.11549902 15.32310008
274 3 0.0 17.8113997 18.11549902 35.32310008
275 3 0.0 8.69507014 3.54057998 11.95299984
276 3 0.0 8.69507014 3.54057998 31.95300104
277 3 0.0 10.19219994 4.37340022 12.07979916
278 3 0.0 10.19219994 4.37340022 32.07979916
279 3 0.0 8.42566014 4.65828984 15.66810012
280 3 0.0 8.42566014 4.65828984 35.66810132
281 3 0.0 9.30354 5.78900992 15.00280024
282 3 0.0 9.30354 5.78900992 35.00279904
283 3 0.0 2.7718401 13.30080032 3.57293008
284 3 0.0 2.7718401 13.30080032 23.57293128
285 3 0.0 1.71225994 12.02029944 3.60778004
286 3 0.0 1.71225994 12.02029944 23.60778092
287 3 0.0 9.14354026 0.107097 17.36590028
288 3 0.0 9.14354026 0.107097 37.36589908
289 3 0.0 9.92606998 1.4772001 17.52099992
290 3 0.0 9.92606998 1.4772001 37.52099992
291 3 0.0 0.86793602 3.7310201 3.53581012
292 3 0.0 0.86793602 3.7310201 23.53580952
293 3 0.0 1.29637002 3.0877 2.06525996
294 3 0.0 1.29637002 3.0877 22.0652604
295 3 0.0 10.48110008 11.99219942 2.37893016
296 3 0.0 10.48110008 11.99219942 22.37893104
297 3 0.0 9.99911964 10.43820024 2.69445004
298 3 0.0 9.99911964 10.43820024 22.69444944
299 3 0.0 9.4473201 13.78020048 18.0415988
300 3 0.0 9.4473201 13.78020048 38.0415988
301 3 0.0 8.68916034 14.48459982 19.3804002
302 3 0.0 8.68916034 14.48459982 39.3804002
303 3 0.0 5.34794986 2.02455998 5.64571024
304 3 0.0 5.34794986 2.02455998 25.64570904
305 3 0.0 4.21110004 1.04566 6.27005996
306 3 0.0 4.21110004 1.04566 26.27006052
307 3 0.0 16.69289946 3.68601978 5.1362598
308 3 0.0 16.69289946 3.68601978 25.136261
309 3 0.0 16.0886991 2.34810994 4.50416
310 3 0.0 16.0886991 2.34810994 24.50416088
311 3 0.0 7.48086036 2.38602996 19.69179868
312 3 0.0 7.48086036 2.38602996 39.69179868
313 3 0.0 7.53268004 3.95227998 19.12579896
314 3 0.0 7.53268004 3.95227998 39.12580012
315 3 0.0 10.44749976 7.90706992 1.98282004
316 3 0.0 10.44749976 7.90706992 21.98282004
317 3 0.0 9.78069962 6.41380966 1.52525992
318 3 0.0 9.78069962 6.41380966 21.525259
319 3 0.0 10.19150018 7.59616972 9.32428004
320 3 0.0 10.19150018 7.59616972 29.32427884
321 3 0.0 11.50359988 8.21561992 9.95160936
322 3 0.0 11.50359988 8.21561992 29.95161056
323 3 0.0 3.68910014 3.51626992 7.88749992
324 3 0.0 3.68910014 3.51626992 27.88749932
325 3 0.0 3.87823016 5.01067996 7.3320198
326 3 0.0 3.87823016 5.01067996 27.3320198
327 3 0.0 9.11485016 16.85000062 1.37668996
328 3 0.0 9.11485016 16.85000062 21.37669088
329 3 0.0 8.03421974 17.9944992 0.94830104
330 3 0.0 8.03421974 17.9944992 20.94830036
331 3 0.0 7.89128006 5.65379024 11.3425994
332 3 0.0 7.89128006 5.65379024 31.3425994
333 3 0.0 8.3555603 7.16960012 11.3230002
334 3 0.0 8.3555603 7.16960012 31.322999
335 3 0.0 17.25270032 7.86141038 13.73409988
336 3 0.0 17.25270032 7.86141038 33.73409988
337 3 0.0 16.25149966 7.34232008 14.89050032
338 3 0.0 16.25149966 7.34232008 34.89049912
339 3 0.0 13.8541007 14.19250012 3.23648988
340 3 0.0 13.8541007 14.19250012 23.23648928
341 3 0.0 13.25979948 14.45870042 1.73621996
342 3 0.0 13.25979948 14.45870042 21.73621892
343 3 0.0 18.91420006 7.7311802 16.19230032
344 3 0.0 18.91420006 7.7311802 36.19230032
345 3 0.0 17.506001 8.11195016 16.88170076
346 3 0.0 17.506001 8.11195016 36.88169956
347 3 0.0 0.365565 19.81030106 16.99839948
348 3 0.0 0.365565 19.81030106 36.99840068
349 3 0.0 1.83111996 19.57130074 16.23590112
350 3 0.0 1.83111996 19.57130074 36.23589992
351 3 0.0 7.82302022 9.17652964 10.47150016
352 3 0.0 7.82302022 9.17652964 30.47150136
353 3 0.0 6.26587986 8.9519298 10.6645
354 3 0.0 6.26587986 8.9519298 30.6645012
355 3 0.0 11.5918994 11.20730042 16.66460036
356 3 0.0 11.5918994 11.20730042 36.66460036
357 3 0.0 11.74579978 10.1443994 17.8741002
358 3 0.0 11.74579978 10.1443994 37.8741002
359 3 0.0 9.53824044 16.53440118 14.10279988
360 3 0.0 9.53824044 16.53440118 34.10279988
361 3 0.0 10.40060044 15.05140066 14.13339972
362 3 0.0 10.40060044 15.05140066 34.13340092
363 3 0.0 9.24973964 4.44045008 17.82130004
364 3 0.0 9.24973964 4.44045008 37.82130004
365 3 0.0 10.46049952 3.62370998 18.45229864
366 3 0.0 10.46049952 3.62370998 38.45229864
367 3 0.0 2.32266992 11.68370008 10.15820028
368 3 0.0 2.32266992 11.68370008 30.15820028
369 3 0.0 1.06694996 10.58860064 10.22390008
370 3 0.0 1.06694996 10.58860064 30.22389888
371 3 0.0 10.7208991 18.92880082 16.1745
372 3 0.0 10.7208991 18.92880082 36.1745
373 3 0.0 9.82495964 19.86150026 15.06639956
374 3 0.0 9.82495964 19.86150026 35.06639956
375 3 0.0 15.25779962 10.8118999 12.78620004
376 3 0.0 15.25779962 10.8118999 32.78620004
377 3 0.0 15.53139926 9.16073978 12.6901996
378 3 0.0 15.53139926 9.16073978 32.6902008
379 3 0.0 0.99642202 9.7748804 6.6336596
380 3 0.0 0.99642202 9.7748804 26.6336584
381 3 0.0 0.0749083 10.7920003 7.53305016
382 3 0.0 0.0749083 10.7920003 27.5330496
383 3 0.0 10.94889998 9.95277048 12.18580008
384 3 0.0 10.94889998 9.95277048 32.18580008
385 3 0.0 9.82610046 8.71006966 12.1394992
386 3 0.0 9.82610046 8.71006966 32.1394992
387 3 0.0 4.29560006 3.63635988 12.17399956
388 3 0.0 4.29560006 3.63635988 32.17400076
389 3 0.0 2.67565996 3.46076996 12.1859002
390 3 0.0 2.67565996 3.46076996 32.1859002
391 3 0.0 6.9572401 0.13841 4.91093008
392 3 0.0 6.9572401 0.13841 24.9109292
393 3 0.0 7.82229006 1.39432996 5.39255024
394 3 0.0 7.82229006 1.39432996 25.39255144
395 3 0.0 7.56229996 4.32152986 7.54116
396 3 0.0 7.56229996 4.32152986 27.5411606
397 3 0.0 6.57308996 3.98129016 8.86513056
398 3 0.0 6.57308996 3.98129016 28.86512996
399 3 0.0 1.8790701 10.73300004 13.70980024
400 3 0.0 1.8790701 10.73300004 33.70980024
401 3 0.0 0.76531098 9.51303958 13.72259976
402 3 0.0 0.76531098 9.51303958 33.72260092
403 3 0.0 4.1199097 13.20520044 10.71490048
404 3 0.0 4.1199097 13.20520044 30.71490048
405 3 0.0 5.63805998 13.55090022 11.02740048
406 3 0.0 5.63805998 13.55090022 31.02740048
407 3 0.0 0.63142904 12.34979988 1.64454996
408 3 0.0 0.63142904 12.34979988 21.64454936
409 3 0.0 0.44463002 12.24419952 19.9759996
410 3 0.0 0.44463002 12.24419952 39.9760008
411 3 0.0 1.20655 13.96899938 18.41390012
412 3 0.0 1.20655 13.96899938 38.41390132
413 3 0.0 2.11808994 13.43169928 19.59199904
414 3 0.0 2.11808994 13.43169928 39.59199904
415 3 0.0 2.16794998 6.77628994 9.0527296
416 3 0.0 2.16794998 6.77628994 29.0527296
417 3 0.0 0.86374096 6.35244012 8.20731996
418 3 0.0 0.86374096 6.35244012 28.20732116
419 3 0.0 14.62819934 12.42089986 1.03776
420 3 0.0 14.62819934 12.42089986 21.0377598
421 3 0.0 16.02259994 11.44840002 1.06519
422 3 0.0 16.02259994 11.44840002 21.06518984
423 3 0.0 7.3952198 16.76149964 16.22050048
424 3 0.0 7.3952198 16.76149964 36.22050048
425 3 0.0 5.8367902 16.97319984 15.6985998
426 3 0.0 5.8367902 16.97319984 35.6985998
427 3 0.0 15.82979918 14.93749976 10.51049948
428 3 0.0 15.82979918 14.93749976 30.51049948
429 3 0.0 14.68360066 13.70899916 10.08650064
430 3 0.0 14.68360066 13.70899916 30.08650064
431 3 0.0 11.47269964 16.40509964 3.80613
432 3 0.0 11.47269964 16.40509964 23.80613088
433 3 0.0 11.17769956 14.80080008 3.9495498
434 3 0.0 11.17769956 14.80080008 23.9495492
435 3 0.0 0.59597802 15.5874002 7.72605
436 3 0.0 0.59597802 15.5874002 27.72604944
437 3 0.0 1.46005004 15.5427003 9.02919948
438 3 0.0 1.46005004 15.5427003 29.02920008
439 3 0.0 8.7073201 14.86819982 2.22465992
440 3 0.0 8.7073201 14.86819982 22.22465992
441 3 0.0 8.22299004 13.35420012 2.21415996
442 3 0.0 8.22299004 13.35420012 22.21415996
443 3 0.0 14.13140058 7.68588006 10.82400084
444 3 0.0 14.13140058 7.68588006 30.82400084
445 3 0.0 14.4310999 8.91977966 9.80399012
446 3 0.0 14.4310999 8.91977966 29.80399132
447 3 0.0 18.04290056 6.27941012 1.72283008
448 3 0.0 18.04290056 6.27941012 21.72282936
449 3 0.0 18.204 6.3616097 0.093207
450 3 0.0 18.204 6.3616097 20.09320736
451 3 0.0 7.82091976 12.45059968 0.00535796
452 3 0.0 7.82091976 12.45059968 20.00535728
453 3 0.0 8.41946006 11.10120058 0.64131304
454 3 0.0 8.41946006 11.10120058 20.6413126
455 3 0.0 12.30080008 3.09650004 10.2331996
456 3 0.0 12.30080008 3.09650004 30.2331996
457 3 0.0 12.89630056 4.34672028 9.41928028
458 3 0.0 12.89630056 4.34672028 29.41927908
459 3 0.0 6.78732038 9.99952972 19.62199928
460 3 0.0 6.78732038 9.99952972 39.62199928
461 3 0.0 5.58103978 8.9525497 19.48220016
462 3 0.0 5.58103978 8.9525497 39.48220016
463 3 0.0 5.13342022 4.19207006 18.01510096
464 3 0.0 5.13342022 4.19207006 38.01510096
465 3 0.0 4.47223008 2.68996 18.08840036
466 3 0.0 4.47223008 2.68996 38.08840036
467 3 0.0 5.45699 14.53909994 4.22457992
468 3 0.0 5.45699 14.53909994 24.22457932
469 3 0.0 5.91832042 13.02320004 4.3032798
470 3 0.0 5.91832042 13.02320004 24.30327892
471 3 0.0 5.31149984 2.9459399 2.05700992
472 3 0.0 5.31149984 2.9459399 22.05700876
473 3 0.0 3.9615199 2.2146599 2.65634
474 3 0.0 3.9615199 2.2146599 22.6563406
475 3 0.0 4.0842399 8.11198056 3.49682988
476 3 0.0 4.0842399 8.11198056 23.49683048
477 3 0.0 4.81081008 9.5645398 3.36865008
478 3 0.0 4.81081008 9.5645398 23.36864948
479 3 0.0 12.1638 15.06719946 19.82439996
480 3 0.0 12.1638 15.06719946 39.82439996
481 3 0.0 12.60699988 13.45129966 19.96069908
482 3 0.0 12.60699988 13.45129966 39.96069908
483 3 0.0 2.7008599 6.58093988 2.30936004
484 3 0.0 2.7008599 6.58093988 22.30936052
485 3 0.0 3.57309014 5.23625016 2.45588988
486 3 0.0 3.57309014 5.23625016 22.45589016
487 3 0.0 5.0798899 5.61900974 10.49919964
488 3 0.0 5.0798899 5.61900974 30.49920084
489 3 0.0 4.92538034 7.2501403 10.28890012
490 3 0.0 4.92538034 7.2501403 30.28890132
491 3 0.0 5.44686974 11.15460038 13.2103002
492 3 0.0 5.44686974 11.15460038 33.2103014
493 3 0.0 7.12017 10.9856999 13.19929956
494 3 0.0 7.12017 10.9856999 33.19930076
495 3 0.0 0.36952902 2.30070994 9.15318012
496 3 0.0 0.36952902 2.30070994 29.15318012
497 3 0.0 1.82327002 2.26370006 9.63420988
498 3 0.0 1.82327002 2.26370006 29.63420868
499 3 0.0 15.60270072 13.60929966 16.94689988
500 3 0.0 15.60270072 13.60929966 36.94689988
501 3 0.0 17.17009902 13.88210058 16.87080024
502 3 0.0 17.17009902 13.88210058 36.87079908
503 3 0.0 17.6207006 12.81090022 10.5855
504 3 0.0 17.6207006 12.81090022 30.5854988
505 3 0.0 16.43149972 11.74700022 10.0252998
506 3 0.0 16.43149972 11.74700022 30.02530096
507 3 0.0 11.00399972 12.25109934 9.46025012
508 3 0.0 11.00399972 12.25109934 29.46024896
509 3 0.0 9.64441002 12.96819926 10.18350004
510 3 0.0 9.64441002 12.96819926 30.18350124
511 3 0.0 12.69639968 2.23650008 16.0105002
512 3 0.0 12.69639968 2.23650008 36.010499
513 3 0.0 13.30330014 3.79731 16.07539892
514 3 0.0 13.30330014 3.79731 36.07539892
515 3 0.0 9.07289028 15.1691997 16.18890048
516 3 0.0 9.07289028 15.1691997 36.18890048
517 3 0.0 10.46540022 15.81579924 16.22269988
518 3 0.0 10.46540022 15.81579924 36.22270108
519 3 0.0 5.60537994 7.57885992 17.17289924
520 3 0.0 5.60537994 7.57885992 37.17289924
521 3 0.0 4.99336004 6.19970978 16.62400008
522 3 0.0 4.99336004 6.19970978 36.62400008
523 3 0.0 15.30259966 4.8231402 10.84699988
524 3 0.0 15.30259966 4.8231402 30.84700108
525 3 0.0 15.8002007 3.89934004 12.18219996
526 3 0.0 15.8002007 3.89934004 32.18219996
527 3 0.0 19.36560034 1.76606998 3.94039988
528 3 0.0 19.36560034 1.76606998 23.94040108
529 3 0.0 18.45120072 0.92003398 4.92775024
530 3 0.0 18.45120072 0.92003398 24.92774964
531 3 0.0 1.38193994 17.37350106 18.11800004
532 3 0.0 1.38193994 17.37350106 38.11800004
533 3 0.0 2.31373996 17.52319932 19.35260056
534 3 0.0 2.31373996 17.52319932 39.35260056
535 3 0.0 13.91720056 4.50129986 19.79120016
536 3 0.0 13.91720056 4.50129986 39.79120016
537 3 0.0 12.72760034 5.37615002 19.1420996
538 3 0.0 12.72760034 5.37615002 39.14209844
539 3 0.0 15.98950028 12.58080006 19.14959908
540 3 0.0 15.98950028 12.58080006 39.14959908
541 3 0.0 15.67860008 14.14190054 19.15360092
542 3 0.0 15.67860008 14.14190054 39.15359972
543 3 0.0 13.54940056 14.87759948 11.84300064
544 3 0.0 13.54940056 14.87759948 31.84299944
545 3 0.0 12.7128005 13.40279936 12.29560016
546 3 0.0 12.7128005 13.40279936 32.295599
547 3 0.0 3.65145982 15.9529996 2.73454992
548 3 0.0 3.65145982 15.9529996 22.73454904
549 3 0.0 4.97773976 15.70960044 1.8828
550 3 0.0 4.97773976 15.70960044 21.88280104
551 3 0.0 7.00618982 1.97376996 7.64589964
552 3 0.0 7.00618982 1.97376996 27.64590024
553 3 0.0 8.3684194 1.70468002 8.53244008
554 3 0.0 8.3684194 1.70468002 28.53244068
555 3 0.0 2.18413994 9.52698052 16.81570052
556 3 0.0 2.18413994 9.52698052 36.81570052
557 3 0.0 0.84817306 8.6271894 16.93670036
558 3 0.0 0.84817306 8.6271894 36.93670036
559 3 0.0 11.28629922 19.96400118 4.60274996
560 3 0.0 11.28629922 19.96400118 24.60274936
561 3 0.0 12.66370058 19.02819992 4.18850004
562 3 0.0 12.66370058 19.02819992 24.18849944
563 3 0.0 2.71719992 1.68433994 13.7581992
564 3 0.0 2.71719992 1.68433994 33.7581992
565 3 0.0 2.87895978 0.81710704 12.42169976
566 3 0.0 2.87895978 0.81710704 32.42169856
567 3 0.0 2.6442799 16.30990028 14.22760008
568 3 0.0 2.6442799 16.30990028 34.22760008
569 3 0.0 3.02280008 15.52860022 15.63140036
570 3 0.0 3.02280008 15.52860022 35.63139916
571 3 0.0 13.0805993 17.66070008 10.5914998
572 3 0.0 13.0805993 17.66070008 30.5914998
573 3 0.0 14.45119976 18.6037004 10.63780068
574 3 0.0 14.45119976 18.6037004 30.63780068
575 3 0.0 1.64030998 3.47835988 5.86953996
576 3 0.0 1.64030998 3.47835988 25.86954116
577 3 0.0 1.09466002 4.95874018 6.04735972
578 3 0.0 1.09466002 4.95874018 26.04735852
579 3 0.0 10.88559986 19.7397995 1.26682996
580 3 0.0 10.88559986 19.7397995 21.26682996
581 3 0.0 10.7336998 18.6777997 2.40138008
582 3 0.0 10.7336998 18.6777997 22.40138052
