# LAMMPS data file written by OVITO Basic 3.8.4

3 atoms
2 atom types

-10.0 10.0 xlo xhi
-10.0 10.0 ylo yhi
-10.0 10.0 zlo zhi

Masses

1 15.9949150085  # O
2 1.007825017    # H

Atoms  # charge

1 1 0.0 0.0 0.0 0.0
2 2 0.0 0.0 0.756723 -0.585799
3 2 0.0 0.0 -0.756723 -0.585799
