# LAMMPS data file

8 atoms
1 atom types

0.0 5.430697500 xlo xhi
0.0 5.430697500 ylo yhi
0.0 5.430697500 zlo zhi

Masses

1 28.09 # Si

Atoms  # charge

1 1 0.0  0.000000000    0.000000000    0.000000000
2 1 0.0  0.000000000    2.715348700    2.715348700
3 1 0.0  2.715348700    2.715348700    0.000000000
4 1 0.0  2.715348700    0.000000000    2.715348700
5 1 0.0  4.073023100    1.357674400    4.073023100
6 1 0.0  1.357674400    1.357674400    1.357674400
7 1 0.0  1.357674400    4.073023100    4.073023100
8 1 0.0  4.073023100    4.073023100    1.357674400