# LAMMPS data file written by OVITO Basic 3.8.4

291 atoms
3 atom types

0.0 20.0 xlo xhi
0.0 20.0 ylo yhi
0.0 20.0 zlo zhi

Masses

1 12.0107  # C
2 15.9994  # O
3 1.00794  # H

Atoms  # charge

1 1 0.0 7.378341 8.235324 6.361027
2 1 0.0 8.648717 8.578412 6.823574
3 1 0.0 6.498619 9.232562 5.942876
4 1 0.0 6.887469 10.570362 5.987201
5 1 0.0 8.157308 10.916581 6.450127
6 1 0.0 9.036593 9.916826 6.86742
7 1 0.0 8.568229 12.331763 6.495793
8 1 0.0 8.403466 13.116211 7.571283
9 1 0.0 8.81997 14.568064 7.602599
10 2 0.0 6.990804 6.929188 6.314895
11 2 0.0 10.243909 14.668732 7.621799
12 2 0.0 18.198881 9.969022 11.286865
13 2 0.0 12.289565 2.63596 7.641807
14 2 0.0 14.801531 17.911489 13.678722
15 2 0.0 13.599108 8.843604 7.266794
16 2 0.0 12.800955 11.562112 3.000223
17 2 0.0 17.562051 3.167752 9.860909
18 2 0.0 17.619463 15.392065 0.3828
19 2 0.0 1.526743 11.840288 16.8343
20 2 0.0 19.681796 6.382235 3.940806
21 2 0.0 12.626611 12.6934 7.869307
22 2 0.0 16.968397 15.376559 5.319792
23 2 0.0 15.614174 5.590178 16.165907
24 2 0.0 16.885086 18.077347 15.556202
25 2 0.0 9.262933 4.19887 12.474515
26 2 0.0 8.356575 5.599479 15.348047
27 2 0.0 1.849826 13.039836 3.583264
28 2 0.0 10.011124 0.534652 17.479021
29 2 0.0 1.396444 3.015872 3.088885
30 2 0.0 9.686686 11.417481 2.473309
31 2 0.0 8.627551 13.83791 18.612723
32 2 0.0 4.492259 1.509581 5.495076
33 2 0.0 16.414279 3.227237 4.295965
34 2 0.0 7.062791 3.327371 19.796556
35 2 0.0 10.119233 7.323283 1.201013
36 2 0.0 10.664284 7.640192 10.128757
37 2 0.0 3.584463 4.475967 8.071079
38 2 0.0 8.3956 17.155365 0.655961
39 2 0.0 7.560729 6.56654 11.228358
40 2 0.0 16.67243 8.164959 14.418616
41 2 0.0 13.020343 14.100776 2.603541
42 2 0.0 18.175513 7.449979 16.812063
43 2 0.0 1.08486 19.147861 16.749244
44 2 0.0 6.90597 9.368467 10.060429
45 2 0.0 12.145647 10.444341 17.025468
46 2 0.0 10.472755 16.07618 14.007305
47 2 0.0 10.076983 4.518982 18.306385
48 2 0.0 1.632003 11.178528 10.74
49 2 0.0 10.596376 19.193377 15.158157
50 2 0.0 15.947842 10.082982 12.6834
51 2 0.0 0.705066 10.76897 6.827045
52 2 0.0 9.957023 9.742151 12.172185
53 2 0.0 3.528864 3.035468 11.951536
54 2 0.0 7.496732 0.870257 4.619612
55 2 0.0 7.51935 4.366596 8.538332
56 2 0.0 1.10953 10.35685 14.220383
57 2 0.0 4.984611 13.512407 10.267531
58 2 0.0 1.078401 12.517309 0.74923
59 2 0.0 1.886149 14.238675 19.109347
60 2 0.0 1.637269 5.998718 8.768522
61 2 0.0 15.031833 11.473451 1.207304
62 2 0.0 6.65383 17.402766 16.162916
63 2 0.0 14.963624 14.708643 9.991923
64 2 0.0 11.894522 15.557419 3.809946
65 2 0.0 0.601262 15.855201 8.679792
66 2 0.0 7.913731 14.255422 2.355214
67 2 0.0 14.638851 8.526544 10.737353
68 2 0.0 18.185006 5.71997 0.848501
69 2 0.0 7.704464 11.762037 0.72012
70 2 0.0 13.033714 3.367804 9.629499
71 2 0.0 5.776726 9.949306 19.527988
72 2 0.0 4.269545 3.684216 18.006423
73 2 0.0 5.122505 13.610438 4.263132
74 2 0.0 4.96962 2.322753 2.805278
75 2 0.0 4.947403 8.596822 3.491191
76 2 0.0 12.961401 14.424728 19.933578
77 2 0.0 3.634791 6.217543 2.380909
78 2 0.0 4.440527 6.346144 10.336839
79 2 0.0 6.315469 11.624168 13.179792
80 2 0.0 1.072178 2.860488 9.413506
81 2 0.0 16.289225 14.31862 16.907189
82 2 0.0 17.182316 11.913362 10.744599
83 2 0.0 10.591514 12.657828 10.34084
84 2 0.0 13.417057 2.82877 16.331736
85 2 0.0 9.51001 16.00171 16.202641
86 2 0.0 5.826913 6.63083 16.854618
87 2 0.0 15.149419 3.909412 11.338989
88 2 0.0 19.171837 0.859058 4.23794
89 2 0.0 2.144513 17.857439 18.448938
90 2 0.0 13.709676 5.367142 19.427312
91 2 0.0 15.264106 13.271606 19.172328
92 2 0.0 13.629513 13.85268 12.086213
93 2 0.0 4.474403 16.345718 2.438887
94 2 0.0 7.707386 1.275659 7.900332
95 2 0.0 1.251557 9.521352 17.012578
96 2 0.0 12.233072 19.989706 4.135829
97 2 0.0 2.678297 0.802275 13.400669
98 2 0.0 2.329237 15.96098 15.13477
99 2 0.0 13.415117 18.599089 10.660317
100 2 0.0 0.866059 4.032123 5.739843
101 2 0.0 10.804377 19.639656 2.215883
102 3 0.0 7.71063 6.354454 6.631575
103 3 0.0 5.507704 8.968245 5.581026
104 3 0.0 6.196512 11.343266 5.659048
105 3 0.0 10.028232 10.179512 7.228388
106 3 0.0 9.340985 7.80665 7.151082
107 3 0.0 9.024318 12.71101 5.581483
108 3 0.0 7.945246 12.723996 8.476459
109 3 0.0 8.411068 15.052896 8.493378
110 3 0.0 8.434142 15.084489 6.719132
111 3 0.0 10.57362 14.249738 8.437487
112 3 0.0 19.161361 10.045511 11.547435
113 3 0.0 18.095069 9.246472 10.603299
114 3 0.0 11.35626 2.38719 7.382634
115 3 0.0 12.478496 3.573032 7.348005
116 3 0.0 15.040676 18.424987 12.854558
117 3 0.0 14.227911 17.130866 13.430318
118 3 0.0 14.586792 8.814633 7.11266
119 3 0.0 13.217135 7.926281 7.153958
120 3 0.0 13.767934 11.410018 3.205001
121 3 0.0 12.279058 10.739467 3.226046
122 3 0.0 17.428038 3.875907 10.554215
123 3 0.0 18.116778 3.533709 9.1136
124 3 0.0 16.944983 14.724551 0.06718
125 3 0.0 18.528124 14.974395 0.380353
126 3 0.0 0.978767 12.661222 16.673351
127 3 0.0 2.462065 12.104742 17.069577
128 3 0.0 19.953138 5.570173 4.45757
129 3 0.0 18.69504 6.360435 3.779697
130 3 0.0 12.929803 11.790409 7.564679
131 3 0.0 11.955091 13.055215 7.222571
132 3 0.0 17.246017 15.452304 6.277553
133 3 0.0 16.384369 14.572962 5.204634
134 3 0.0 15.566913 4.724064 16.66363
135 3 0.0 14.850356 6.174428 16.440411
136 3 0.0 16.568491 17.141399 15.401654
137 3 0.0 17.864931 18.133709 15.364255
138 3 0.0 8.74492 3.521892 11.951563
139 3 0.0 10.143024 4.362255 12.028575
140 3 0.0 8.379386 4.671075 15.719073
141 3 0.0 9.254284 5.830562 14.972763
142 3 0.0 2.818149 13.287019 3.620236
143 3 0.0 1.760141 12.043831 3.576193
144 3 0.0 9.090631 0.153847 17.390728
145 3 0.0 9.953946 1.530019 17.557082
146 3 0.0 0.87432 3.741048 3.537908
147 3 0.0 1.311662 3.109485 2.096833
148 3 0.0 10.495047 12.000196 2.388981
149 3 0.0 9.970682 10.482016 2.68395
150 3 0.0 9.473972 13.821869 18.080341
151 3 0.0 8.730715 14.466255 19.383863
152 3 0.0 5.364784 1.969186 5.661148
153 3 0.0 4.215876 1.01197 6.317338
154 3 0.0 16.67234 3.695006 5.141372
155 3 0.0 16.068467 2.314188 4.512471
156 3 0.0 7.456497 2.415955 19.676418
157 3 0.0 7.485893 3.961196 19.148969
158 3 0.0 10.455823 7.869257 1.968305
159 3 0.0 9.795333 6.439118 1.537849
160 3 0.0 10.145716 7.588066 9.275243
161 3 0.0 11.454593 8.239844 10.002474
162 3 0.0 3.744126 3.505608 7.889343
163 3 0.0 3.913068 5.018344 7.297798
164 3 0.0 9.084734 16.898866 1.333766
165 3 0.0 7.992272 18.035297 0.907284
166 3 0.0 7.873813 5.620033 11.30722
167 3 0.0 8.34671 7.182845 11.278556
168 3 0.0 17.304887 7.861483 13.705863
169 3 0.0 16.245426 7.3683 14.846542
170 3 0.0 13.804093 14.147676 3.222938
171 3 0.0 13.297141 14.405432 1.692122
172 3 0.0 18.867409 7.731628 16.147179
173 3 0.0 17.453346 8.140488 16.854352
174 3 0.0 0.395192 19.820516 17.017592
175 3 0.0 1.79674 19.597511 16.209651
176 3 0.0 7.820435 9.192228 10.42486
177 3 0.0 6.221434 8.96935 10.670538
178 3 0.0 11.635601 11.229229 16.673445
179 3 0.0 11.712731 10.114692 17.864535
180 3 0.0 9.577144 16.5175 14.064177
181 3 0.0 10.364649 15.08776 14.114335
182 3 0.0 9.210036 4.464608 17.810842
183 3 0.0 10.449444 3.598916 18.428323
184 3 0.0 2.277081 11.688907 10.171226
185 3 0.0 1.119441 10.537083 10.169084
186 3 0.0 10.738803 18.96724 16.121844
187 3 0.0 9.831678 19.832508 15.075292
188 3 0.0 15.220311 10.757256 12.810562
189 3 0.0 15.553708 9.163868 12.680959
190 3 0.0 0.958555 9.813798 6.673733
191 3 0.0 0.041453 10.822018 7.573317
192 3 0.0 10.93578 9.94069 12.224456
193 3 0.0 9.818807 8.75208 12.144366
194 3 0.0 4.285411 3.634284 12.214539
195 3 0.0 2.660126 3.492792 12.141978
196 3 0.0 6.913917 0.114658 4.918799
197 3 0.0 7.812473 1.383781 5.41756
198 3 0.0 7.601362 4.332132 7.542239
199 3 0.0 6.624459 4.013496 8.811477
200 3 0.0 1.848793 10.768409 13.687253
201 3 0.0 0.803875 9.51635 13.772886
202 3 0.0 4.105813 13.245355 10.663148
203 3 0.0 5.671056 13.574964 10.992098
204 3 0.0 0.635617 12.33431 1.627051
205 3 0.0 0.451525 12.286088 0.005132
206 3 0.0 1.207458 13.973136 18.424523
207 3 0.0 2.163605 13.433339 19.63334
208 3 0.0 2.20507 6.758093 9.086431
209 3 0.0 0.910528 6.350296 8.178302
210 3 0.0 14.657436 12.382991 1.026528
211 3 0.0 16.024913 11.492657 1.090936
212 3 0.0 7.378471 16.718255 16.243271
213 3 0.0 5.877141 17.009671 15.670626
214 3 0.0 15.822982 14.906035 10.463788
215 3 0.0 14.723939 13.746818 10.124444
216 3 0.0 11.449655 16.453058 3.803492
217 3 0.0 11.206079 14.844286 3.942635
218 3 0.0 0.549048 15.610812 7.711462
219 3 0.0 1.457109 15.509863 9.065002
220 3 0.0 8.69816 14.861893 2.224906
221 3 0.0 8.195915 13.308154 2.202987
222 3 0.0 14.079423 7.702079 10.823453
223 3 0.0 14.455306 8.963378 9.856668
224 3 0.0 18.011005 6.238313 1.685854
225 3 0.0 18.15278 6.336758 0.061956
226 3 0.0 7.839446 12.427692 19.98609
227 3 0.0 8.436167 11.080946 0.691096
228 3 0.0 12.27813 3.088575 10.222153
229 3 0.0 12.925303 4.33083 9.382625
230 3 0.0 6.76809 10.031927 19.630401
231 3 0.0 5.52959 8.983853 19.444674
232 3 0.0 5.107201 4.228761 17.962619
233 3 0.0 4.505378 2.716991 18.101159
234 3 0.0 5.431439 14.557477 4.174849
235 3 0.0 5.914383 12.999686 4.257833
236 3 0.0 5.298779 2.953348 2.10234
237 3 0.0 3.990141 2.165049 2.679306
238 3 0.0 4.076764 8.108224 3.549298
239 3 0.0 4.773949 9.578296 3.409091
240 3 0.0 12.203004 15.062545 19.798894
241 3 0.0 12.609224 13.489123 19.960647
242 3 0.0 2.703111 6.580131 2.356051
243 3 0.0 3.602982 5.218308 2.40612
244 3 0.0 5.130563 5.641338 10.501812
245 3 0.0 4.877592 7.245621 10.33117
246 3 0.0 5.45398 11.120405 13.244412
247 3 0.0 7.081037 10.982223 13.223731
248 3 0.0 0.320942 2.270267 9.117872
249 3 0.0 1.86795 2.298801 9.640165
250 3 0.0 15.576982 13.61949 16.97077
251 3 0.0 17.184372 13.877498 16.842063
252 3 0.0 17.645696 12.781366 10.565814
253 3 0.0 16.449027 11.783361 10.077137
254 3 0.0 10.955542 12.289276 9.485405
255 3 0.0 9.671957 13.018237 10.183876
256 3 0.0 12.665405 2.263465 15.991786
257 3 0.0 13.287366 3.772978 16.028802
258 3 0.0 9.039228 15.1194 16.205932
259 3 0.0 10.498614 15.852043 16.22211
260 3 0.0 5.610477 7.566049 17.135043
261 3 0.0 4.983302 6.152336 16.610729
262 3 0.0 15.276197 4.773696 10.852104
263 3 0.0 15.755238 3.882896 12.134224
264 3 0.0 19.409996 1.774015 3.911978
265 3 0.0 18.431381 0.925807 4.906811
266 3 0.0 1.36277 17.349423 18.087119
267 3 0.0 2.368701 17.517894 19.362484
268 3 0.0 13.961109 4.454479 19.749715
269 3 0.0 12.767464 5.354441 19.092358
270 3 0.0 15.951301 12.545057 19.169939
271 3 0.0 15.71989 14.161516 19.151366
272 3 0.0 13.521595 14.824623 11.876937
273 3 0.0 12.731527 13.446633 12.256111
274 3 0.0 3.612241 15.919652 2.713224
275 3 0.0 5.012486 15.694509 1.903619
276 3 0.0 6.991614 1.93494 7.669823
277 3 0.0 8.387671 1.714083 8.487797
278 3 0.0 2.224975 9.484715 16.786236
279 3 0.0 0.850792 8.610987 16.90894
280 3 0.0 11.322628 19.976931 4.549404
281 3 0.0 12.633494 19.074533 4.183146
282 3 0.0 2.675645 1.723429 13.790007
283 3 0.0 2.851337 0.856622 12.417195
284 3 0.0 2.678465 16.254596 14.244857
285 3 0.0 3.068827 15.541301 15.661072
286 3 0.0 13.061885 17.669865 10.551288
287 3 0.0 14.414616 18.57509 10.683671
288 3 0.0 1.669756 3.458697 5.899121
289 3 0.0 1.07364 4.975868 5.997475
290 3 0.0 10.929076 19.732402 1.227974
291 3 0.0 10.722369 18.671339 2.452005
